+ 0.75 0 1 cbr 500 ------- 2 0.1 2.0 0 0
- 0.75 0 1 cbr 500 ------- 2 0.1 2.0 0 0
+ 0.755 0 1 cbr 500 ------- 2 0.1 2.0 1 1
- 0.755 0 1 cbr 500 ------- 2 0.1 2.0 1 1
+ 0.76 0 1 cbr 500 ------- 2 0.1 2.0 2 2
- 0.76 0 1 cbr 500 ------- 2 0.1 2.0 2 2
r 0.764 0 1 cbr 500 ------- 2 0.1 2.0 0 0
+ 0.764 1 2 cbr 500 ------- 2 0.1 2.0 0 0
- 0.764 1 2 cbr 500 ------- 2 0.1 2.0 0 0
+ 0.765 0 1 cbr 500 ------- 2 0.1 2.0 3 3
- 0.765 0 1 cbr 500 ------- 2 0.1 2.0 3 3
r 0.769 0 1 cbr 500 ------- 2 0.1 2.0 1 1
+ 0.769 1 2 cbr 500 ------- 2 0.1 2.0 1 1
- 0.769 1 2 cbr 500 ------- 2 0.1 2.0 1 1
+ 0.77 0 1 cbr 500 ------- 2 0.1 2.0 4 4
- 0.77 0 1 cbr 500 ------- 2 0.1 2.0 4 4
r 0.774 0 1 cbr 500 ------- 2 0.1 2.0 2 2
+ 0.774 1 2 cbr 500 ------- 2 0.1 2.0 2 2
- 0.774 1 2 cbr 500 ------- 2 0.1 2.0 2 2
+ 0.775 0 1 cbr 500 ------- 2 0.1 2.0 5 5
- 0.775 0 1 cbr 500 ------- 2 0.1 2.0 5 5
r 0.778 1 2 cbr 500 ------- 2 0.1 2.0 0 0
r 0.779 0 1 cbr 500 ------- 2 0.1 2.0 3 3
+ 0.779 1 2 cbr 500 ------- 2 0.1 2.0 3 3
- 0.779 1 2 cbr 500 ------- 2 0.1 2.0 3 3
+ 0.78 0 1 cbr 500 ------- 2 0.1 2.0 6 6
- 0.78 0 1 cbr 500 ------- 2 0.1 2.0 6 6
r 0.783 1 2 cbr 500 ------- 2 0.1 2.0 1 1
r 0.784 0 1 cbr 500 ------- 2 0.1 2.0 4 4
+ 0.784 1 2 cbr 500 ------- 2 0.1 2.0 4 4
- 0.784 1 2 cbr 500 ------- 2 0.1 2.0 4 4
+ 0.785 0 1 cbr 500 ------- 2 0.1 2.0 7 7
- 0.785 0 1 cbr 500 ------- 2 0.1 2.0 7 7
r 0.788 1 2 cbr 500 ------- 2 0.1 2.0 2 2
r 0.789 0 1 cbr 500 ------- 2 0.1 2.0 5 5
+ 0.789 1 2 cbr 500 ------- 2 0.1 2.0 5 5
- 0.789 1 2 cbr 500 ------- 2 0.1 2.0 5 5
+ 0.79 0 1 cbr 500 ------- 2 0.1 2.0 8 8
- 0.79 0 1 cbr 500 ------- 2 0.1 2.0 8 8
r 0.793 1 2 cbr 500 ------- 2 0.1 2.0 3 3
r 0.794 0 1 cbr 500 ------- 2 0.1 2.0 6 6
+ 0.794 1 2 cbr 500 ------- 2 0.1 2.0 6 6
- 0.794 1 2 cbr 500 ------- 2 0.1 2.0 6 6
+ 0.795 0 1 cbr 500 ------- 2 0.1 2.0 9 9
- 0.795 0 1 cbr 500 ------- 2 0.1 2.0 9 9
r 0.798 1 2 cbr 500 ------- 2 0.1 2.0 4 4
r 0.799 0 1 cbr 500 ------- 2 0.1 2.0 7 7
+ 0.799 1 2 cbr 500 ------- 2 0.1 2.0 7 7
- 0.799 1 2 cbr 500 ------- 2 0.1 2.0 7 7
+ 0.8 0 1 cbr 500 ------- 2 0.1 2.0 10 10
- 0.8 0 1 cbr 500 ------- 2 0.1 2.0 10 10
r 0.803 1 2 cbr 500 ------- 2 0.1 2.0 5 5
r 0.804 0 1 cbr 500 ------- 2 0.1 2.0 8 8
+ 0.804 1 2 cbr 500 ------- 2 0.1 2.0 8 8
- 0.804 1 2 cbr 500 ------- 2 0.1 2.0 8 8
+ 0.805 0 1 cbr 500 ------- 2 0.1 2.0 11 11
- 0.805 0 1 cbr 500 ------- 2 0.1 2.0 11 11
r 0.808 1 2 cbr 500 ------- 2 0.1 2.0 6 6
r 0.809 0 1 cbr 500 ------- 2 0.1 2.0 9 9
+ 0.809 1 2 cbr 500 ------- 2 0.1 2.0 9 9
- 0.809 1 2 cbr 500 ------- 2 0.1 2.0 9 9
+ 0.81 0 1 cbr 500 ------- 2 0.1 2.0 12 12
- 0.81 0 1 cbr 500 ------- 2 0.1 2.0 12 12
r 0.813 1 2 cbr 500 ------- 2 0.1 2.0 7 7
r 0.814 0 1 cbr 500 ------- 2 0.1 2.0 10 10
+ 0.814 1 2 cbr 500 ------- 2 0.1 2.0 10 10
- 0.814 1 2 cbr 500 ------- 2 0.1 2.0 10 10
+ 0.815 0 1 cbr 500 ------- 2 0.1 2.0 13 13
- 0.815 0 1 cbr 500 ------- 2 0.1 2.0 13 13
r 0.818 1 2 cbr 500 ------- 2 0.1 2.0 8 8
r 0.819 0 1 cbr 500 ------- 2 0.1 2.0 11 11
+ 0.819 1 2 cbr 500 ------- 2 0.1 2.0 11 11
- 0.819 1 2 cbr 500 ------- 2 0.1 2.0 11 11
+ 0.82 0 1 cbr 500 ------- 2 0.1 2.0 14 14
- 0.82 0 1 cbr 500 ------- 2 0.1 2.0 14 14
r 0.823 1 2 cbr 500 ------- 2 0.1 2.0 9 9
r 0.824 0 1 cbr 500 ------- 2 0.1 2.0 12 12
+ 0.824 1 2 cbr 500 ------- 2 0.1 2.0 12 12
- 0.824 1 2 cbr 500 ------- 2 0.1 2.0 12 12
+ 0.825 0 1 cbr 500 ------- 2 0.1 2.0 15 15
- 0.825 0 1 cbr 500 ------- 2 0.1 2.0 15 15
r 0.828 1 2 cbr 500 ------- 2 0.1 2.0 10 10
r 0.829 0 1 cbr 500 ------- 2 0.1 2.0 13 13
+ 0.829 1 2 cbr 500 ------- 2 0.1 2.0 13 13
- 0.829 1 2 cbr 500 ------- 2 0.1 2.0 13 13
+ 0.83 0 1 cbr 500 ------- 2 0.1 2.0 16 16
- 0.83 0 1 cbr 500 ------- 2 0.1 2.0 16 16
r 0.833 1 2 cbr 500 ------- 2 0.1 2.0 11 11
r 0.834 0 1 cbr 500 ------- 2 0.1 2.0 14 14
+ 0.834 1 2 cbr 500 ------- 2 0.1 2.0 14 14
- 0.834 1 2 cbr 500 ------- 2 0.1 2.0 14 14
+ 0.835 0 1 cbr 500 ------- 2 0.1 2.0 17 17
- 0.835 0 1 cbr 500 ------- 2 0.1 2.0 17 17
r 0.838 1 2 cbr 500 ------- 2 0.1 2.0 12 12
r 0.839 0 1 cbr 500 ------- 2 0.1 2.0 15 15
+ 0.839 1 2 cbr 500 ------- 2 0.1 2.0 15 15
- 0.839 1 2 cbr 500 ------- 2 0.1 2.0 15 15
+ 0.84 0 1 cbr 500 ------- 2 0.1 2.0 18 18
- 0.84 0 1 cbr 500 ------- 2 0.1 2.0 18 18
r 0.843 1 2 cbr 500 ------- 2 0.1 2.0 13 13
r 0.844 0 1 cbr 500 ------- 2 0.1 2.0 16 16
+ 0.844 1 2 cbr 500 ------- 2 0.1 2.0 16 16
- 0.844 1 2 cbr 500 ------- 2 0.1 2.0 16 16
+ 0.845 0 1 cbr 500 ------- 2 0.1 2.0 19 19
- 0.845 0 1 cbr 500 ------- 2 0.1 2.0 19 19
r 0.848 1 2 cbr 500 ------- 2 0.1 2.0 14 14
r 0.849 0 1 cbr 500 ------- 2 0.1 2.0 17 17
+ 0.849 1 2 cbr 500 ------- 2 0.1 2.0 17 17
- 0.849 1 2 cbr 500 ------- 2 0.1 2.0 17 17
+ 0.85 0 1 cbr 500 ------- 2 0.1 2.0 20 20
- 0.85 0 1 cbr 500 ------- 2 0.1 2.0 20 20
r 0.853 1 2 cbr 500 ------- 2 0.1 2.0 15 15
r 0.854 0 1 cbr 500 ------- 2 0.1 2.0 18 18
+ 0.854 1 2 cbr 500 ------- 2 0.1 2.0 18 18
- 0.854 1 2 cbr 500 ------- 2 0.1 2.0 18 18
+ 0.855 0 1 cbr 500 ------- 2 0.1 2.0 21 21
- 0.855 0 1 cbr 500 ------- 2 0.1 2.0 21 21
r 0.858 1 2 cbr 500 ------- 2 0.1 2.0 16 16
r 0.859 0 1 cbr 500 ------- 2 0.1 2.0 19 19
+ 0.859 1 2 cbr 500 ------- 2 0.1 2.0 19 19
- 0.859 1 2 cbr 500 ------- 2 0.1 2.0 19 19
+ 0.86 0 1 cbr 500 ------- 2 0.1 2.0 22 22
- 0.86 0 1 cbr 500 ------- 2 0.1 2.0 22 22
r 0.863 1 2 cbr 500 ------- 2 0.1 2.0 17 17
r 0.864 0 1 cbr 500 ------- 2 0.1 2.0 20 20
+ 0.864 1 2 cbr 500 ------- 2 0.1 2.0 20 20
- 0.864 1 2 cbr 500 ------- 2 0.1 2.0 20 20
+ 0.865 0 1 cbr 500 ------- 2 0.1 2.0 23 23
- 0.865 0 1 cbr 500 ------- 2 0.1 2.0 23 23
r 0.868 1 2 cbr 500 ------- 2 0.1 2.0 18 18
r 0.869 0 1 cbr 500 ------- 2 0.1 2.0 21 21
+ 0.869 1 2 cbr 500 ------- 2 0.1 2.0 21 21
- 0.869 1 2 cbr 500 ------- 2 0.1 2.0 21 21
+ 0.87 0 1 cbr 500 ------- 2 0.1 2.0 24 24
- 0.87 0 1 cbr 500 ------- 2 0.1 2.0 24 24
r 0.873 1 2 cbr 500 ------- 2 0.1 2.0 19 19
r 0.874 0 1 cbr 500 ------- 2 0.1 2.0 22 22
+ 0.874 1 2 cbr 500 ------- 2 0.1 2.0 22 22
- 0.874 1 2 cbr 500 ------- 2 0.1 2.0 22 22
+ 0.875 0 1 cbr 500 ------- 2 0.1 2.0 25 25
- 0.875 0 1 cbr 500 ------- 2 0.1 2.0 25 25
r 0.878 1 2 cbr 500 ------- 2 0.1 2.0 20 20
r 0.879 0 1 cbr 500 ------- 2 0.1 2.0 23 23
+ 0.879 1 2 cbr 500 ------- 2 0.1 2.0 23 23
- 0.879 1 2 cbr 500 ------- 2 0.1 2.0 23 23
+ 0.88 0 1 cbr 500 ------- 2 0.1 2.0 26 26
- 0.88 0 1 cbr 500 ------- 2 0.1 2.0 26 26
r 0.883 1 2 cbr 500 ------- 2 0.1 2.0 21 21
r 0.884 0 1 cbr 500 ------- 2 0.1 2.0 24 24
+ 0.884 1 2 cbr 500 ------- 2 0.1 2.0 24 24
- 0.884 1 2 cbr 500 ------- 2 0.1 2.0 24 24
+ 0.885 0 1 cbr 500 ------- 2 0.1 2.0 27 27
- 0.885 0 1 cbr 500 ------- 2 0.1 2.0 27 27
r 0.888 1 2 cbr 500 ------- 2 0.1 2.0 22 22
r 0.889 0 1 cbr 500 ------- 2 0.1 2.0 25 25
+ 0.889 1 2 cbr 500 ------- 2 0.1 2.0 25 25
- 0.889 1 2 cbr 500 ------- 2 0.1 2.0 25 25
+ 0.89 0 1 cbr 500 ------- 2 0.1 2.0 28 28
- 0.89 0 1 cbr 500 ------- 2 0.1 2.0 28 28
r 0.893 1 2 cbr 500 ------- 2 0.1 2.0 23 23
r 0.894 0 1 cbr 500 ------- 2 0.1 2.0 26 26
+ 0.894 1 2 cbr 500 ------- 2 0.1 2.0 26 26
- 0.894 1 2 cbr 500 ------- 2 0.1 2.0 26 26
+ 0.895 0 1 cbr 500 ------- 2 0.1 2.0 29 29
- 0.895 0 1 cbr 500 ------- 2 0.1 2.0 29 29
r 0.898 1 2 cbr 500 ------- 2 0.1 2.0 24 24
r 0.899 0 1 cbr 500 ------- 2 0.1 2.0 27 27
+ 0.899 1 2 cbr 500 ------- 2 0.1 2.0 27 27
- 0.899 1 2 cbr 500 ------- 2 0.1 2.0 27 27
+ 0.9 0 1 cbr 500 ------- 2 0.1 2.0 30 30
- 0.9 0 1 cbr 500 ------- 2 0.1 2.0 30 30
r 0.903 1 2 cbr 500 ------- 2 0.1 2.0 25 25
r 0.904 0 1 cbr 500 ------- 2 0.1 2.0 28 28
+ 0.904 1 2 cbr 500 ------- 2 0.1 2.0 28 28
- 0.904 1 2 cbr 500 ------- 2 0.1 2.0 28 28
+ 0.905 0 1 cbr 500 ------- 2 0.1 2.0 31 31
- 0.905 0 1 cbr 500 ------- 2 0.1 2.0 31 31
r 0.908 1 2 cbr 500 ------- 2 0.1 2.0 26 26
r 0.909 0 1 cbr 500 ------- 2 0.1 2.0 29 29
+ 0.909 1 2 cbr 500 ------- 2 0.1 2.0 29 29
- 0.909 1 2 cbr 500 ------- 2 0.1 2.0 29 29
+ 0.91 0 1 cbr 500 ------- 2 0.1 2.0 32 32
- 0.91 0 1 cbr 500 ------- 2 0.1 2.0 32 32
r 0.913 1 2 cbr 500 ------- 2 0.1 2.0 27 27
r 0.914 0 1 cbr 500 ------- 2 0.1 2.0 30 30
+ 0.914 1 2 cbr 500 ------- 2 0.1 2.0 30 30
- 0.914 1 2 cbr 500 ------- 2 0.1 2.0 30 30
+ 0.915 0 1 cbr 500 ------- 2 0.1 2.0 33 33
- 0.915 0 1 cbr 500 ------- 2 0.1 2.0 33 33
r 0.918 1 2 cbr 500 ------- 2 0.1 2.0 28 28
r 0.919 0 1 cbr 500 ------- 2 0.1 2.0 31 31
+ 0.919 1 2 cbr 500 ------- 2 0.1 2.0 31 31
- 0.919 1 2 cbr 500 ------- 2 0.1 2.0 31 31
+ 0.92 0 1 cbr 500 ------- 2 0.1 2.0 34 34
- 0.92 0 1 cbr 500 ------- 2 0.1 2.0 34 34
r 0.923 1 2 cbr 500 ------- 2 0.1 2.0 29 29
r 0.924 0 1 cbr 500 ------- 2 0.1 2.0 32 32
+ 0.924 1 2 cbr 500 ------- 2 0.1 2.0 32 32
- 0.924 1 2 cbr 500 ------- 2 0.1 2.0 32 32
+ 0.925 0 1 cbr 500 ------- 2 0.1 2.0 35 35
- 0.925 0 1 cbr 500 ------- 2 0.1 2.0 35 35
r 0.928 1 2 cbr 500 ------- 2 0.1 2.0 30 30
r 0.929 0 1 cbr 500 ------- 2 0.1 2.0 33 33
+ 0.929 1 2 cbr 500 ------- 2 0.1 2.0 33 33
- 0.929 1 2 cbr 500 ------- 2 0.1 2.0 33 33
+ 0.93 0 1 cbr 500 ------- 2 0.1 2.0 36 36
- 0.93 0 1 cbr 500 ------- 2 0.1 2.0 36 36
r 0.933 1 2 cbr 500 ------- 2 0.1 2.0 31 31
r 0.934 0 1 cbr 500 ------- 2 0.1 2.0 34 34
+ 0.934 1 2 cbr 500 ------- 2 0.1 2.0 34 34
- 0.934 1 2 cbr 500 ------- 2 0.1 2.0 34 34
+ 0.935 0 1 cbr 500 ------- 2 0.1 2.0 37 37
- 0.935 0 1 cbr 500 ------- 2 0.1 2.0 37 37
r 0.938 1 2 cbr 500 ------- 2 0.1 2.0 32 32
r 0.939 0 1 cbr 500 ------- 2 0.1 2.0 35 35
+ 0.939 1 2 cbr 500 ------- 2 0.1 2.0 35 35
- 0.939 1 2 cbr 500 ------- 2 0.1 2.0 35 35
+ 0.94 0 1 cbr 500 ------- 2 0.1 2.0 38 38
- 0.94 0 1 cbr 500 ------- 2 0.1 2.0 38 38
r 0.943 1 2 cbr 500 ------- 2 0.1 2.0 33 33
r 0.944 0 1 cbr 500 ------- 2 0.1 2.0 36 36
+ 0.944 1 2 cbr 500 ------- 2 0.1 2.0 36 36
- 0.944 1 2 cbr 500 ------- 2 0.1 2.0 36 36
+ 0.945 0 1 cbr 500 ------- 2 0.1 2.0 39 39
- 0.945 0 1 cbr 500 ------- 2 0.1 2.0 39 39
r 0.948 1 2 cbr 500 ------- 2 0.1 2.0 34 34
r 0.949 0 1 cbr 500 ------- 2 0.1 2.0 37 37
+ 0.949 1 2 cbr 500 ------- 2 0.1 2.0 37 37
- 0.949 1 2 cbr 500 ------- 2 0.1 2.0 37 37
+ 0.95 0 1 cbr 500 ------- 2 0.1 2.0 40 40
- 0.95 0 1 cbr 500 ------- 2 0.1 2.0 40 40
r 0.953 1 2 cbr 500 ------- 2 0.1 2.0 35 35
r 0.954 0 1 cbr 500 ------- 2 0.1 2.0 38 38
+ 0.954 1 2 cbr 500 ------- 2 0.1 2.0 38 38
- 0.954 1 2 cbr 500 ------- 2 0.1 2.0 38 38
+ 0.955 0 1 cbr 500 ------- 2 0.1 2.0 41 41
- 0.955 0 1 cbr 500 ------- 2 0.1 2.0 41 41
r 0.958 1 2 cbr 500 ------- 2 0.1 2.0 36 36
r 0.959 0 1 cbr 500 ------- 2 0.1 2.0 39 39
+ 0.959 1 2 cbr 500 ------- 2 0.1 2.0 39 39
- 0.959 1 2 cbr 500 ------- 2 0.1 2.0 39 39
+ 0.96 0 1 cbr 500 ------- 2 0.1 2.0 42 42
- 0.96 0 1 cbr 500 ------- 2 0.1 2.0 42 42
r 0.963 1 2 cbr 500 ------- 2 0.1 2.0 37 37
r 0.964 0 1 cbr 500 ------- 2 0.1 2.0 40 40
+ 0.964 1 2 cbr 500 ------- 2 0.1 2.0 40 40
- 0.964 1 2 cbr 500 ------- 2 0.1 2.0 40 40
+ 0.965 0 1 cbr 500 ------- 2 0.1 2.0 43 43
- 0.965 0 1 cbr 500 ------- 2 0.1 2.0 43 43
r 0.968 1 2 cbr 500 ------- 2 0.1 2.0 38 38
r 0.969 0 1 cbr 500 ------- 2 0.1 2.0 41 41
+ 0.969 1 2 cbr 500 ------- 2 0.1 2.0 41 41
- 0.969 1 2 cbr 500 ------- 2 0.1 2.0 41 41
+ 0.97 0 1 cbr 500 ------- 2 0.1 2.0 44 44
- 0.97 0 1 cbr 500 ------- 2 0.1 2.0 44 44
r 0.973 1 2 cbr 500 ------- 2 0.1 2.0 39 39
r 0.974 0 1 cbr 500 ------- 2 0.1 2.0 42 42
+ 0.974 1 2 cbr 500 ------- 2 0.1 2.0 42 42
- 0.974 1 2 cbr 500 ------- 2 0.1 2.0 42 42
+ 0.975 0 1 cbr 500 ------- 2 0.1 2.0 45 45
- 0.975 0 1 cbr 500 ------- 2 0.1 2.0 45 45
r 0.978 1 2 cbr 500 ------- 2 0.1 2.0 40 40
r 0.979 0 1 cbr 500 ------- 2 0.1 2.0 43 43
+ 0.979 1 2 cbr 500 ------- 2 0.1 2.0 43 43
- 0.979 1 2 cbr 500 ------- 2 0.1 2.0 43 43
+ 0.98 0 1 cbr 500 ------- 2 0.1 2.0 46 46
- 0.98 0 1 cbr 500 ------- 2 0.1 2.0 46 46
r 0.983 1 2 cbr 500 ------- 2 0.1 2.0 41 41
r 0.984 0 1 cbr 500 ------- 2 0.1 2.0 44 44
+ 0.984 1 2 cbr 500 ------- 2 0.1 2.0 44 44
- 0.984 1 2 cbr 500 ------- 2 0.1 2.0 44 44
+ 0.985 0 1 cbr 500 ------- 2 0.1 2.0 47 47
- 0.985 0 1 cbr 500 ------- 2 0.1 2.0 47 47
r 0.988 1 2 cbr 500 ------- 2 0.1 2.0 42 42
r 0.989 0 1 cbr 500 ------- 2 0.1 2.0 45 45
+ 0.989 1 2 cbr 500 ------- 2 0.1 2.0 45 45
- 0.989 1 2 cbr 500 ------- 2 0.1 2.0 45 45
+ 0.99 0 1 cbr 500 ------- 2 0.1 2.0 48 48
- 0.99 0 1 cbr 500 ------- 2 0.1 2.0 48 48
r 0.993 1 2 cbr 500 ------- 2 0.1 2.0 43 43
r 0.994 0 1 cbr 500 ------- 2 0.1 2.0 46 46
+ 0.994 1 2 cbr 500 ------- 2 0.1 2.0 46 46
- 0.994 1 2 cbr 500 ------- 2 0.1 2.0 46 46
+ 0.995 0 1 cbr 500 ------- 2 0.1 2.0 49 49
- 0.995 0 1 cbr 500 ------- 2 0.1 2.0 49 49
r 0.998 1 2 cbr 500 ------- 2 0.1 2.0 44 44
r 0.999 0 1 cbr 500 ------- 2 0.1 2.0 47 47
+ 0.999 1 2 cbr 500 ------- 2 0.1 2.0 47 47
- 0.999 1 2 cbr 500 ------- 2 0.1 2.0 47 47
+ 1 0 1 cbr 500 ------- 2 0.1 2.0 50 50
- 1 0 1 cbr 500 ------- 2 0.1 2.0 50 50
r 1.003 1 2 cbr 500 ------- 2 0.1 2.0 45 45
r 1.004 0 1 cbr 500 ------- 2 0.1 2.0 48 48
+ 1.004 1 2 cbr 500 ------- 2 0.1 2.0 48 48
- 1.004 1 2 cbr 500 ------- 2 0.1 2.0 48 48
+ 1.005 0 1 cbr 500 ------- 2 0.1 2.0 51 51
- 1.005 0 1 cbr 500 ------- 2 0.1 2.0 51 51
r 1.008 1 2 cbr 500 ------- 2 0.1 2.0 46 46
r 1.009 0 1 cbr 500 ------- 2 0.1 2.0 49 49
+ 1.009 1 2 cbr 500 ------- 2 0.1 2.0 49 49
- 1.009 1 2 cbr 500 ------- 2 0.1 2.0 49 49
+ 1.01 0 1 cbr 500 ------- 2 0.1 2.0 52 52
- 1.01 0 1 cbr 500 ------- 2 0.1 2.0 52 52
r 1.013 1 2 cbr 500 ------- 2 0.1 2.0 47 47
r 1.014 0 1 cbr 500 ------- 2 0.1 2.0 50 50
+ 1.014 1 2 cbr 500 ------- 2 0.1 2.0 50 50
- 1.014 1 2 cbr 500 ------- 2 0.1 2.0 50 50
+ 1.015 0 1 cbr 500 ------- 2 0.1 2.0 53 53
- 1.015 0 1 cbr 500 ------- 2 0.1 2.0 53 53
r 1.018 1 2 cbr 500 ------- 2 0.1 2.0 48 48
r 1.019 0 1 cbr 500 ------- 2 0.1 2.0 51 51
+ 1.019 1 2 cbr 500 ------- 2 0.1 2.0 51 51
- 1.019 1 2 cbr 500 ------- 2 0.1 2.0 51 51
+ 1.02 0 1 cbr 500 ------- 2 0.1 2.0 54 54
- 1.02 0 1 cbr 500 ------- 2 0.1 2.0 54 54
r 1.023 1 2 cbr 500 ------- 2 0.1 2.0 49 49
r 1.024 0 1 cbr 500 ------- 2 0.1 2.0 52 52
+ 1.024 1 2 cbr 500 ------- 2 0.1 2.0 52 52
- 1.024 1 2 cbr 500 ------- 2 0.1 2.0 52 52
+ 1.025 0 1 cbr 500 ------- 2 0.1 2.0 55 55
- 1.025 0 1 cbr 500 ------- 2 0.1 2.0 55 55
r 1.028 1 2 cbr 500 ------- 2 0.1 2.0 50 50
r 1.029 0 1 cbr 500 ------- 2 0.1 2.0 53 53
+ 1.029 1 2 cbr 500 ------- 2 0.1 2.0 53 53
- 1.029 1 2 cbr 500 ------- 2 0.1 2.0 53 53
+ 1.03 0 1 cbr 500 ------- 2 0.1 2.0 56 56
- 1.03 0 1 cbr 500 ------- 2 0.1 2.0 56 56
r 1.033 1 2 cbr 500 ------- 2 0.1 2.0 51 51
r 1.034 0 1 cbr 500 ------- 2 0.1 2.0 54 54
+ 1.034 1 2 cbr 500 ------- 2 0.1 2.0 54 54
- 1.034 1 2 cbr 500 ------- 2 0.1 2.0 54 54
+ 1.035 0 1 cbr 500 ------- 2 0.1 2.0 57 57
- 1.035 0 1 cbr 500 ------- 2 0.1 2.0 57 57
r 1.038 1 2 cbr 500 ------- 2 0.1 2.0 52 52
r 1.039 0 1 cbr 500 ------- 2 0.1 2.0 55 55
+ 1.039 1 2 cbr 500 ------- 2 0.1 2.0 55 55
- 1.039 1 2 cbr 500 ------- 2 0.1 2.0 55 55
+ 1.04 0 1 cbr 500 ------- 2 0.1 2.0 58 58
- 1.04 0 1 cbr 500 ------- 2 0.1 2.0 58 58
r 1.043 1 2 cbr 500 ------- 2 0.1 2.0 53 53
r 1.044 0 1 cbr 500 ------- 2 0.1 2.0 56 56
+ 1.044 1 2 cbr 500 ------- 2 0.1 2.0 56 56
- 1.044 1 2 cbr 500 ------- 2 0.1 2.0 56 56
+ 1.045 0 1 cbr 500 ------- 2 0.1 2.0 59 59
- 1.045 0 1 cbr 500 ------- 2 0.1 2.0 59 59
r 1.048 1 2 cbr 500 ------- 2 0.1 2.0 54 54
r 1.049 0 1 cbr 500 ------- 2 0.1 2.0 57 57
+ 1.049 1 2 cbr 500 ------- 2 0.1 2.0 57 57
- 1.049 1 2 cbr 500 ------- 2 0.1 2.0 57 57
+ 1.05 0 1 cbr 500 ------- 2 0.1 2.0 60 60
- 1.05 0 1 cbr 500 ------- 2 0.1 2.0 60 60
r 1.053 1 2 cbr 500 ------- 2 0.1 2.0 55 55
r 1.054 0 1 cbr 500 ------- 2 0.1 2.0 58 58
+ 1.054 1 2 cbr 500 ------- 2 0.1 2.0 58 58
- 1.054 1 2 cbr 500 ------- 2 0.1 2.0 58 58
+ 1.055 0 1 cbr 500 ------- 2 0.1 2.0 61 61
- 1.055 0 1 cbr 500 ------- 2 0.1 2.0 61 61
r 1.058 1 2 cbr 500 ------- 2 0.1 2.0 56 56
r 1.059 0 1 cbr 500 ------- 2 0.1 2.0 59 59
+ 1.059 1 2 cbr 500 ------- 2 0.1 2.0 59 59
- 1.059 1 2 cbr 500 ------- 2 0.1 2.0 59 59
+ 1.06 0 1 cbr 500 ------- 2 0.1 2.0 62 62
- 1.06 0 1 cbr 500 ------- 2 0.1 2.0 62 62
r 1.063 1 2 cbr 500 ------- 2 0.1 2.0 57 57
r 1.064 0 1 cbr 500 ------- 2 0.1 2.0 60 60
+ 1.064 1 2 cbr 500 ------- 2 0.1 2.0 60 60
- 1.064 1 2 cbr 500 ------- 2 0.1 2.0 60 60
+ 1.065 0 1 cbr 500 ------- 2 0.1 2.0 63 63
- 1.065 0 1 cbr 500 ------- 2 0.1 2.0 63 63
r 1.068 1 2 cbr 500 ------- 2 0.1 2.0 58 58
r 1.069 0 1 cbr 500 ------- 2 0.1 2.0 61 61
+ 1.069 1 2 cbr 500 ------- 2 0.1 2.0 61 61
- 1.069 1 2 cbr 500 ------- 2 0.1 2.0 61 61
+ 1.07 0 1 cbr 500 ------- 2 0.1 2.0 64 64
- 1.07 0 1 cbr 500 ------- 2 0.1 2.0 64 64
r 1.073 1 2 cbr 500 ------- 2 0.1 2.0 59 59
r 1.074 0 1 cbr 500 ------- 2 0.1 2.0 62 62
+ 1.074 1 2 cbr 500 ------- 2 0.1 2.0 62 62
- 1.074 1 2 cbr 500 ------- 2 0.1 2.0 62 62
+ 1.075 0 1 cbr 500 ------- 2 0.1 2.0 65 65
- 1.075 0 1 cbr 500 ------- 2 0.1 2.0 65 65
r 1.078 1 2 cbr 500 ------- 2 0.1 2.0 60 60
r 1.079 0 1 cbr 500 ------- 2 0.1 2.0 63 63
+ 1.079 1 2 cbr 500 ------- 2 0.1 2.0 63 63
- 1.079 1 2 cbr 500 ------- 2 0.1 2.0 63 63
+ 1.08 0 1 cbr 500 ------- 2 0.1 2.0 66 66
- 1.08 0 1 cbr 500 ------- 2 0.1 2.0 66 66
r 1.083 1 2 cbr 500 ------- 2 0.1 2.0 61 61
r 1.084 0 1 cbr 500 ------- 2 0.1 2.0 64 64
+ 1.084 1 2 cbr 500 ------- 2 0.1 2.0 64 64
- 1.084 1 2 cbr 500 ------- 2 0.1 2.0 64 64
+ 1.085 0 1 cbr 500 ------- 2 0.1 2.0 67 67
- 1.085 0 1 cbr 500 ------- 2 0.1 2.0 67 67
r 1.088 1 2 cbr 500 ------- 2 0.1 2.0 62 62
r 1.089 0 1 cbr 500 ------- 2 0.1 2.0 65 65
+ 1.089 1 2 cbr 500 ------- 2 0.1 2.0 65 65
- 1.089 1 2 cbr 500 ------- 2 0.1 2.0 65 65
+ 1.09 0 1 cbr 500 ------- 2 0.1 2.0 68 68
- 1.09 0 1 cbr 500 ------- 2 0.1 2.0 68 68
r 1.093 1 2 cbr 500 ------- 2 0.1 2.0 63 63
r 1.094 0 1 cbr 500 ------- 2 0.1 2.0 66 66
+ 1.094 1 2 cbr 500 ------- 2 0.1 2.0 66 66
- 1.094 1 2 cbr 500 ------- 2 0.1 2.0 66 66
+ 1.095 0 1 cbr 500 ------- 2 0.1 2.0 69 69
- 1.095 0 1 cbr 500 ------- 2 0.1 2.0 69 69
r 1.098 1 2 cbr 500 ------- 2 0.1 2.0 64 64
r 1.099 0 1 cbr 500 ------- 2 0.1 2.0 67 67
+ 1.099 1 2 cbr 500 ------- 2 0.1 2.0 67 67
- 1.099 1 2 cbr 500 ------- 2 0.1 2.0 67 67
+ 1.1 0 1 cbr 500 ------- 2 0.1 2.0 70 70
- 1.1 0 1 cbr 500 ------- 2 0.1 2.0 70 70
r 1.103 1 2 cbr 500 ------- 2 0.1 2.0 65 65
r 1.104 0 1 cbr 500 ------- 2 0.1 2.0 68 68
+ 1.104 1 2 cbr 500 ------- 2 0.1 2.0 68 68
- 1.104 1 2 cbr 500 ------- 2 0.1 2.0 68 68
+ 1.105 0 1 cbr 500 ------- 2 0.1 2.0 71 71
- 1.105 0 1 cbr 500 ------- 2 0.1 2.0 71 71
r 1.108 1 2 cbr 500 ------- 2 0.1 2.0 66 66
r 1.109 0 1 cbr 500 ------- 2 0.1 2.0 69 69
+ 1.109 1 2 cbr 500 ------- 2 0.1 2.0 69 69
- 1.109 1 2 cbr 500 ------- 2 0.1 2.0 69 69
+ 1.11 0 1 cbr 500 ------- 2 0.1 2.0 72 72
- 1.11 0 1 cbr 500 ------- 2 0.1 2.0 72 72
r 1.113 1 2 cbr 500 ------- 2 0.1 2.0 67 67
r 1.114 0 1 cbr 500 ------- 2 0.1 2.0 70 70
+ 1.114 1 2 cbr 500 ------- 2 0.1 2.0 70 70
- 1.114 1 2 cbr 500 ------- 2 0.1 2.0 70 70
+ 1.115 0 1 cbr 500 ------- 2 0.1 2.0 73 73
- 1.115 0 1 cbr 500 ------- 2 0.1 2.0 73 73
r 1.118 1 2 cbr 500 ------- 2 0.1 2.0 68 68
r 1.119 0 1 cbr 500 ------- 2 0.1 2.0 71 71
+ 1.119 1 2 cbr 500 ------- 2 0.1 2.0 71 71
- 1.119 1 2 cbr 500 ------- 2 0.1 2.0 71 71
+ 1.12 0 1 cbr 500 ------- 2 0.1 2.0 74 74
- 1.12 0 1 cbr 500 ------- 2 0.1 2.0 74 74
r 1.123 1 2 cbr 500 ------- 2 0.1 2.0 69 69
r 1.124 0 1 cbr 500 ------- 2 0.1 2.0 72 72
+ 1.124 1 2 cbr 500 ------- 2 0.1 2.0 72 72
- 1.124 1 2 cbr 500 ------- 2 0.1 2.0 72 72
+ 1.125 0 1 cbr 500 ------- 2 0.1 2.0 75 75
- 1.125 0 1 cbr 500 ------- 2 0.1 2.0 75 75
r 1.128 1 2 cbr 500 ------- 2 0.1 2.0 70 70
r 1.129 0 1 cbr 500 ------- 2 0.1 2.0 73 73
+ 1.129 1 2 cbr 500 ------- 2 0.1 2.0 73 73
- 1.129 1 2 cbr 500 ------- 2 0.1 2.0 73 73
+ 1.13 0 1 cbr 500 ------- 2 0.1 2.0 76 76
- 1.13 0 1 cbr 500 ------- 2 0.1 2.0 76 76
r 1.133 1 2 cbr 500 ------- 2 0.1 2.0 71 71
r 1.134 0 1 cbr 500 ------- 2 0.1 2.0 74 74
+ 1.134 1 2 cbr 500 ------- 2 0.1 2.0 74 74
- 1.134 1 2 cbr 500 ------- 2 0.1 2.0 74 74
+ 1.135 0 1 cbr 500 ------- 2 0.1 2.0 77 77
- 1.135 0 1 cbr 500 ------- 2 0.1 2.0 77 77
r 1.138 1 2 cbr 500 ------- 2 0.1 2.0 72 72
r 1.139 0 1 cbr 500 ------- 2 0.1 2.0 75 75
+ 1.139 1 2 cbr 500 ------- 2 0.1 2.0 75 75
- 1.139 1 2 cbr 500 ------- 2 0.1 2.0 75 75
+ 1.14 0 1 cbr 500 ------- 2 0.1 2.0 78 78
- 1.14 0 1 cbr 500 ------- 2 0.1 2.0 78 78
r 1.143 1 2 cbr 500 ------- 2 0.1 2.0 73 73
r 1.144 0 1 cbr 500 ------- 2 0.1 2.0 76 76
+ 1.144 1 2 cbr 500 ------- 2 0.1 2.0 76 76
- 1.144 1 2 cbr 500 ------- 2 0.1 2.0 76 76
+ 1.145 0 1 cbr 500 ------- 2 0.1 2.0 79 79
- 1.145 0 1 cbr 500 ------- 2 0.1 2.0 79 79
r 1.148 1 2 cbr 500 ------- 2 0.1 2.0 74 74
r 1.149 0 1 cbr 500 ------- 2 0.1 2.0 77 77
+ 1.149 1 2 cbr 500 ------- 2 0.1 2.0 77 77
- 1.149 1 2 cbr 500 ------- 2 0.1 2.0 77 77
+ 1.15 0 1 cbr 500 ------- 2 0.1 2.0 80 80
- 1.15 0 1 cbr 500 ------- 2 0.1 2.0 80 80
r 1.153 1 2 cbr 500 ------- 2 0.1 2.0 75 75
r 1.154 0 1 cbr 500 ------- 2 0.1 2.0 78 78
+ 1.154 1 2 cbr 500 ------- 2 0.1 2.0 78 78
- 1.154 1 2 cbr 500 ------- 2 0.1 2.0 78 78
+ 1.155 0 1 cbr 500 ------- 2 0.1 2.0 81 81
- 1.155 0 1 cbr 500 ------- 2 0.1 2.0 81 81
r 1.158 1 2 cbr 500 ------- 2 0.1 2.0 76 76
r 1.159 0 1 cbr 500 ------- 2 0.1 2.0 79 79
+ 1.159 1 2 cbr 500 ------- 2 0.1 2.0 79 79
- 1.159 1 2 cbr 500 ------- 2 0.1 2.0 79 79
+ 1.16 0 1 cbr 500 ------- 2 0.1 2.0 82 82
- 1.16 0 1 cbr 500 ------- 2 0.1 2.0 82 82
r 1.163 1 2 cbr 500 ------- 2 0.1 2.0 77 77
r 1.164 0 1 cbr 500 ------- 2 0.1 2.0 80 80
+ 1.164 1 2 cbr 500 ------- 2 0.1 2.0 80 80
- 1.164 1 2 cbr 500 ------- 2 0.1 2.0 80 80
+ 1.165 0 1 cbr 500 ------- 2 0.1 2.0 83 83
- 1.165 0 1 cbr 500 ------- 2 0.1 2.0 83 83
r 1.168 1 2 cbr 500 ------- 2 0.1 2.0 78 78
r 1.169 0 1 cbr 500 ------- 2 0.1 2.0 81 81
+ 1.169 1 2 cbr 500 ------- 2 0.1 2.0 81 81
- 1.169 1 2 cbr 500 ------- 2 0.1 2.0 81 81
+ 1.17 0 1 cbr 500 ------- 2 0.1 2.0 84 84
- 1.17 0 1 cbr 500 ------- 2 0.1 2.0 84 84
r 1.173 1 2 cbr 500 ------- 2 0.1 2.0 79 79
r 1.174 0 1 cbr 500 ------- 2 0.1 2.0 82 82
+ 1.174 1 2 cbr 500 ------- 2 0.1 2.0 82 82
- 1.174 1 2 cbr 500 ------- 2 0.1 2.0 82 82
+ 1.175 0 1 cbr 500 ------- 2 0.1 2.0 85 85
- 1.175 0 1 cbr 500 ------- 2 0.1 2.0 85 85
r 1.178 1 2 cbr 500 ------- 2 0.1 2.0 80 80
r 1.179 0 1 cbr 500 ------- 2 0.1 2.0 83 83
+ 1.179 1 2 cbr 500 ------- 2 0.1 2.0 83 83
- 1.179 1 2 cbr 500 ------- 2 0.1 2.0 83 83
+ 1.18 0 1 cbr 500 ------- 2 0.1 2.0 86 86
- 1.18 0 1 cbr 500 ------- 2 0.1 2.0 86 86
r 1.183 1 2 cbr 500 ------- 2 0.1 2.0 81 81
r 1.184 0 1 cbr 500 ------- 2 0.1 2.0 84 84
+ 1.184 1 2 cbr 500 ------- 2 0.1 2.0 84 84
- 1.184 1 2 cbr 500 ------- 2 0.1 2.0 84 84
+ 1.185 0 1 cbr 500 ------- 2 0.1 2.0 87 87
- 1.185 0 1 cbr 500 ------- 2 0.1 2.0 87 87
r 1.188 1 2 cbr 500 ------- 2 0.1 2.0 82 82
r 1.189 0 1 cbr 500 ------- 2 0.1 2.0 85 85
+ 1.189 1 2 cbr 500 ------- 2 0.1 2.0 85 85
- 1.189 1 2 cbr 500 ------- 2 0.1 2.0 85 85
+ 1.19 0 1 cbr 500 ------- 2 0.1 2.0 88 88
- 1.19 0 1 cbr 500 ------- 2 0.1 2.0 88 88
r 1.193 1 2 cbr 500 ------- 2 0.1 2.0 83 83
r 1.194 0 1 cbr 500 ------- 2 0.1 2.0 86 86
+ 1.194 1 2 cbr 500 ------- 2 0.1 2.0 86 86
- 1.194 1 2 cbr 500 ------- 2 0.1 2.0 86 86
+ 1.195 0 1 cbr 500 ------- 2 0.1 2.0 89 89
- 1.195 0 1 cbr 500 ------- 2 0.1 2.0 89 89
r 1.198 1 2 cbr 500 ------- 2 0.1 2.0 84 84
r 1.199 0 1 cbr 500 ------- 2 0.1 2.0 87 87
+ 1.199 1 2 cbr 500 ------- 2 0.1 2.0 87 87
- 1.199 1 2 cbr 500 ------- 2 0.1 2.0 87 87
+ 1.2 0 1 cbr 500 ------- 2 0.1 2.0 90 90
- 1.2 0 1 cbr 500 ------- 2 0.1 2.0 90 90
r 1.203 1 2 cbr 500 ------- 2 0.1 2.0 85 85
r 1.204 0 1 cbr 500 ------- 2 0.1 2.0 88 88
+ 1.204 1 2 cbr 500 ------- 2 0.1 2.0 88 88
- 1.204 1 2 cbr 500 ------- 2 0.1 2.0 88 88
+ 1.205 0 1 cbr 500 ------- 2 0.1 2.0 91 91
- 1.205 0 1 cbr 500 ------- 2 0.1 2.0 91 91
r 1.208 1 2 cbr 500 ------- 2 0.1 2.0 86 86
r 1.209 0 1 cbr 500 ------- 2 0.1 2.0 89 89
+ 1.209 1 2 cbr 500 ------- 2 0.1 2.0 89 89
- 1.209 1 2 cbr 500 ------- 2 0.1 2.0 89 89
+ 1.21 0 1 cbr 500 ------- 2 0.1 2.0 92 92
- 1.21 0 1 cbr 500 ------- 2 0.1 2.0 92 92
r 1.213 1 2 cbr 500 ------- 2 0.1 2.0 87 87
r 1.214 0 1 cbr 500 ------- 2 0.1 2.0 90 90
+ 1.214 1 2 cbr 500 ------- 2 0.1 2.0 90 90
- 1.214 1 2 cbr 500 ------- 2 0.1 2.0 90 90
+ 1.215 0 1 cbr 500 ------- 2 0.1 2.0 93 93
- 1.215 0 1 cbr 500 ------- 2 0.1 2.0 93 93
r 1.218 1 2 cbr 500 ------- 2 0.1 2.0 88 88
r 1.219 0 1 cbr 500 ------- 2 0.1 2.0 91 91
+ 1.219 1 2 cbr 500 ------- 2 0.1 2.0 91 91
- 1.219 1 2 cbr 500 ------- 2 0.1 2.0 91 91
+ 1.22 0 1 cbr 500 ------- 2 0.1 2.0 94 94
- 1.22 0 1 cbr 500 ------- 2 0.1 2.0 94 94
r 1.223 1 2 cbr 500 ------- 2 0.1 2.0 89 89
r 1.224 0 1 cbr 500 ------- 2 0.1 2.0 92 92
+ 1.224 1 2 cbr 500 ------- 2 0.1 2.0 92 92
- 1.224 1 2 cbr 500 ------- 2 0.1 2.0 92 92
+ 1.225 0 1 cbr 500 ------- 2 0.1 2.0 95 95
- 1.225 0 1 cbr 500 ------- 2 0.1 2.0 95 95
r 1.228 1 2 cbr 500 ------- 2 0.1 2.0 90 90
r 1.229 0 1 cbr 500 ------- 2 0.1 2.0 93 93
+ 1.229 1 2 cbr 500 ------- 2 0.1 2.0 93 93
- 1.229 1 2 cbr 500 ------- 2 0.1 2.0 93 93
+ 1.23 0 1 cbr 500 ------- 2 0.1 2.0 96 96
- 1.23 0 1 cbr 500 ------- 2 0.1 2.0 96 96
r 1.233 1 2 cbr 500 ------- 2 0.1 2.0 91 91
r 1.234 0 1 cbr 500 ------- 2 0.1 2.0 94 94
+ 1.234 1 2 cbr 500 ------- 2 0.1 2.0 94 94
- 1.234 1 2 cbr 500 ------- 2 0.1 2.0 94 94
+ 1.235 0 1 cbr 500 ------- 2 0.1 2.0 97 97
- 1.235 0 1 cbr 500 ------- 2 0.1 2.0 97 97
r 1.238 1 2 cbr 500 ------- 2 0.1 2.0 92 92
r 1.239 0 1 cbr 500 ------- 2 0.1 2.0 95 95
+ 1.239 1 2 cbr 500 ------- 2 0.1 2.0 95 95
- 1.239 1 2 cbr 500 ------- 2 0.1 2.0 95 95
+ 1.24 0 1 cbr 500 ------- 2 0.1 2.0 98 98
- 1.24 0 1 cbr 500 ------- 2 0.1 2.0 98 98
r 1.243 1 2 cbr 500 ------- 2 0.1 2.0 93 93
r 1.244 0 1 cbr 500 ------- 2 0.1 2.0 96 96
+ 1.244 1 2 cbr 500 ------- 2 0.1 2.0 96 96
- 1.244 1 2 cbr 500 ------- 2 0.1 2.0 96 96
+ 1.245 0 1 cbr 500 ------- 2 0.1 2.0 99 99
- 1.245 0 1 cbr 500 ------- 2 0.1 2.0 99 99
r 1.248 1 2 cbr 500 ------- 2 0.1 2.0 94 94
r 1.249 0 1 cbr 500 ------- 2 0.1 2.0 97 97
+ 1.249 1 2 cbr 500 ------- 2 0.1 2.0 97 97
- 1.249 1 2 cbr 500 ------- 2 0.1 2.0 97 97
+ 1.25 0 1 cbr 500 ------- 2 0.1 2.0 100 100
- 1.25 0 1 cbr 500 ------- 2 0.1 2.0 100 100
r 1.253 1 2 cbr 500 ------- 2 0.1 2.0 95 95
r 1.254 0 1 cbr 500 ------- 2 0.1 2.0 98 98
+ 1.254 1 2 cbr 500 ------- 2 0.1 2.0 98 98
- 1.254 1 2 cbr 500 ------- 2 0.1 2.0 98 98
+ 1.255 0 1 cbr 500 ------- 2 0.1 2.0 101 101
- 1.255 0 1 cbr 500 ------- 2 0.1 2.0 101 101
r 1.258 1 2 cbr 500 ------- 2 0.1 2.0 96 96
r 1.259 0 1 cbr 500 ------- 2 0.1 2.0 99 99
+ 1.259 1 2 cbr 500 ------- 2 0.1 2.0 99 99
- 1.259 1 2 cbr 500 ------- 2 0.1 2.0 99 99
+ 1.26 0 1 cbr 500 ------- 2 0.1 2.0 102 102
- 1.26 0 1 cbr 500 ------- 2 0.1 2.0 102 102
r 1.263 1 2 cbr 500 ------- 2 0.1 2.0 97 97
r 1.264 0 1 cbr 500 ------- 2 0.1 2.0 100 100
+ 1.264 1 2 cbr 500 ------- 2 0.1 2.0 100 100
- 1.264 1 2 cbr 500 ------- 2 0.1 2.0 100 100
+ 1.265 0 1 cbr 500 ------- 2 0.1 2.0 103 103
- 1.265 0 1 cbr 500 ------- 2 0.1 2.0 103 103
r 1.268 1 2 cbr 500 ------- 2 0.1 2.0 98 98
r 1.269 0 1 cbr 500 ------- 2 0.1 2.0 101 101
+ 1.269 1 2 cbr 500 ------- 2 0.1 2.0 101 101
- 1.269 1 2 cbr 500 ------- 2 0.1 2.0 101 101
+ 1.27 0 1 cbr 500 ------- 2 0.1 2.0 104 104
- 1.27 0 1 cbr 500 ------- 2 0.1 2.0 104 104
r 1.273 1 2 cbr 500 ------- 2 0.1 2.0 99 99
r 1.274 0 1 cbr 500 ------- 2 0.1 2.0 102 102
+ 1.274 1 2 cbr 500 ------- 2 0.1 2.0 102 102
- 1.274 1 2 cbr 500 ------- 2 0.1 2.0 102 102
+ 1.275 0 1 cbr 500 ------- 2 0.1 2.0 105 105
- 1.275 0 1 cbr 500 ------- 2 0.1 2.0 105 105
r 1.278 1 2 cbr 500 ------- 2 0.1 2.0 100 100
r 1.279 0 1 cbr 500 ------- 2 0.1 2.0 103 103
+ 1.279 1 2 cbr 500 ------- 2 0.1 2.0 103 103
- 1.279 1 2 cbr 500 ------- 2 0.1 2.0 103 103
+ 1.28 0 1 cbr 500 ------- 2 0.1 2.0 106 106
- 1.28 0 1 cbr 500 ------- 2 0.1 2.0 106 106
r 1.283 1 2 cbr 500 ------- 2 0.1 2.0 101 101
r 1.284 0 1 cbr 500 ------- 2 0.1 2.0 104 104
+ 1.284 1 2 cbr 500 ------- 2 0.1 2.0 104 104
- 1.284 1 2 cbr 500 ------- 2 0.1 2.0 104 104
+ 1.285 0 1 cbr 500 ------- 2 0.1 2.0 107 107
- 1.285 0 1 cbr 500 ------- 2 0.1 2.0 107 107
r 1.288 1 2 cbr 500 ------- 2 0.1 2.0 102 102
r 1.289 0 1 cbr 500 ------- 2 0.1 2.0 105 105
+ 1.289 1 2 cbr 500 ------- 2 0.1 2.0 105 105
- 1.289 1 2 cbr 500 ------- 2 0.1 2.0 105 105
+ 1.29 0 1 cbr 500 ------- 2 0.1 2.0 108 108
- 1.29 0 1 cbr 500 ------- 2 0.1 2.0 108 108
r 1.293 1 2 cbr 500 ------- 2 0.1 2.0 103 103
r 1.294 0 1 cbr 500 ------- 2 0.1 2.0 106 106
+ 1.294 1 2 cbr 500 ------- 2 0.1 2.0 106 106
- 1.294 1 2 cbr 500 ------- 2 0.1 2.0 106 106
+ 1.295 0 1 cbr 500 ------- 2 0.1 2.0 109 109
- 1.295 0 1 cbr 500 ------- 2 0.1 2.0 109 109
r 1.298 1 2 cbr 500 ------- 2 0.1 2.0 104 104
r 1.299 0 1 cbr 500 ------- 2 0.1 2.0 107 107
+ 1.299 1 2 cbr 500 ------- 2 0.1 2.0 107 107
- 1.299 1 2 cbr 500 ------- 2 0.1 2.0 107 107
+ 1.3 0 1 cbr 500 ------- 2 0.1 2.0 110 110
- 1.3 0 1 cbr 500 ------- 2 0.1 2.0 110 110
r 1.303 1 2 cbr 500 ------- 2 0.1 2.0 105 105
r 1.304 0 1 cbr 500 ------- 2 0.1 2.0 108 108
+ 1.304 1 2 cbr 500 ------- 2 0.1 2.0 108 108
- 1.304 1 2 cbr 500 ------- 2 0.1 2.0 108 108
+ 1.305 0 1 cbr 500 ------- 2 0.1 2.0 111 111
- 1.305 0 1 cbr 500 ------- 2 0.1 2.0 111 111
r 1.308 1 2 cbr 500 ------- 2 0.1 2.0 106 106
r 1.309 0 1 cbr 500 ------- 2 0.1 2.0 109 109
+ 1.309 1 2 cbr 500 ------- 2 0.1 2.0 109 109
- 1.309 1 2 cbr 500 ------- 2 0.1 2.0 109 109
+ 1.31 0 1 cbr 500 ------- 2 0.1 2.0 112 112
- 1.31 0 1 cbr 500 ------- 2 0.1 2.0 112 112
r 1.313 1 2 cbr 500 ------- 2 0.1 2.0 107 107
r 1.314 0 1 cbr 500 ------- 2 0.1 2.0 110 110
+ 1.314 1 2 cbr 500 ------- 2 0.1 2.0 110 110
- 1.314 1 2 cbr 500 ------- 2 0.1 2.0 110 110
+ 1.315 0 1 cbr 500 ------- 2 0.1 2.0 113 113
- 1.315 0 1 cbr 500 ------- 2 0.1 2.0 113 113
r 1.318 1 2 cbr 500 ------- 2 0.1 2.0 108 108
r 1.319 0 1 cbr 500 ------- 2 0.1 2.0 111 111
+ 1.319 1 2 cbr 500 ------- 2 0.1 2.0 111 111
- 1.319 1 2 cbr 500 ------- 2 0.1 2.0 111 111
+ 1.32 0 1 cbr 500 ------- 2 0.1 2.0 114 114
- 1.32 0 1 cbr 500 ------- 2 0.1 2.0 114 114
r 1.323 1 2 cbr 500 ------- 2 0.1 2.0 109 109
r 1.324 0 1 cbr 500 ------- 2 0.1 2.0 112 112
+ 1.324 1 2 cbr 500 ------- 2 0.1 2.0 112 112
- 1.324 1 2 cbr 500 ------- 2 0.1 2.0 112 112
+ 1.325 0 1 cbr 500 ------- 2 0.1 2.0 115 115
- 1.325 0 1 cbr 500 ------- 2 0.1 2.0 115 115
r 1.328 1 2 cbr 500 ------- 2 0.1 2.0 110 110
r 1.329 0 1 cbr 500 ------- 2 0.1 2.0 113 113